HEADER
"PSFversion" "1.00"
"__NEXT_FILE__" "Absolute_Value_Detector"
