HEADER
"PSFversion" "1.00"
"I137n I133n I131n I127n I125n I121n I114n I102n I98n" "NOR2X4"
"I135n I130n I123n I109n I34n I35n" "NOR2X2"
"I120n I118n I110n I107n" "NAND2X4"
"I128n I117n I106n I100n I32n I33n" "NAND2X2"
"I29n I30n I28n I31n" "INVX1"
"I60n I136n I134n I132n I129n I126n I122n I119n I116n I115n I111n I108n I103n I99n I104n I105n" "INVX2"
"I61n I21n I20n I19n I23n I24n I25n I26n" "XOR2X1"
"I22n I27n" "XOR2X2"
"I124n I112n I101n" "NAND3X2"
