HEADER
"PSFversion" "1.00"
"I29n I30n I28n I31n" "INVX1"
"I60n I136n I134n I132n I129n I126n I122n I119n I116n I115n I111n I108n I103n I99n I104n I105n" "INVX2"
"I137n I135n I133n I131n I130n I127n I125n I123n I121n I114n I109n I102n I98n I34n I35n" "NOR2X1"
"I61n I21n I20n I19n I23n I24n I25n I26n" "XOR2X1"
"I22n I27n" "XOR2X2"
"I128n I120n I118n I117n I110n I106n I100n I107n I32n I33n" "NAND2X1"
"I124n I112n I101n" "NAND3X1"
